ITEM: TIMESTEP
3200000
ITEM: NUMBER OF ATOMS
416
ITEM: BOX BOUNDS pp pp ff
-1.5750970182000000e+01 1.6036605587000000e+01
-1.6275814454999999e+01 1.7531115324000002e+01
-3.3383603858000001e+01 3.3383603858000001e+01
ITEM: ATOMS q 
0.00221346 
-0.00647403 
-0.00668431 
-0.00622366 
0.000114167 
0.00103185 
-0.00721192 
-0.0106634 
-0.0109554 
-0.0108485 
-0.0138459 
-0.0129655 
-0.0120453 
-0.0111683 
-0.00545148 
-0.00357368 
0.00321963 
0.00822462 
-0.00808865 
-0.00593875 
0.00146099 
0.00894755 
-0.00671028 
-0.00484607 
0.00357021 
0.00328776 
-0.00290409 
-0.00108731 
-0.00625953 
-0.00611586 
-0.00238271 
-0.00461234 
-0.00458605 
-0.00282615 
-0.00675321 
-0.00389055 
-0.00375334 
-0.00416206 
-0.00967631 
-0.00603656 
-0.00372798 
-0.00117984 
-0.00244926 
-0.00215212 
-0.00164492 
-0.00169804 
-0.00295223 
-0.002265 
-0.00200941 
-0.00227309 
-0.00332236 
-0.0029714 
-0.00987142 
-0.00528585 
0.00485887 
-0.00214153 
-0.00064823 
-0.000874118 
0.0019573 
0.0122309 
0.00644246 
-0.00340948 
-0.00355032 
-0.00257724 
-0.00341417 
-0.00534602 
-0.00455781 
-0.00360767 
-0.00941473 
-0.00637495 
-0.00564959 
-0.00514307 
-0.00878359 
-0.0106792 
-0.00801979 
-0.00455137 
-0.00681766 
-0.00892473 
-0.00891754 
-0.0119615 
0.000794016 
-0.00119772 
-0.00244029 
0.00302949 
0.00125498 
0.0029297 
0.00738357 
0.0132194 
-0.00430139 
-0.00127942 
0.00440712 
-0.00131776 
0.00209449 
-0.00552062 
-0.00928431 
-0.00720661 
0.0125976 
0.0059007 
-0.0019713 
-0.00358398 
-1.15329e-05 
0.0059083 
0.00076683 
0.00380831 
0.0144834 
0.0102934 
0.0043866 
0.00137645 
0.0110844 
0.00969894 
0.00241004 
-0.00384202 
0.00300618 
0.00457396 
-0.00314455 
-0.00416123 
-0.00127277 
-0.00218944 
-0.00399009 
-0.00460335 
-0.00591788 
-0.00357386 
-0.00495712 
-0.00488104 
-0.00403921 
-0.00173836 
-0.00480319 
-0.00600963 
-0.00311157 
0.0027821 
0.0004129 
0.00416082 
0.0142364 
0.00981478 
0.00396994 
-0.00291031 
0.00163496 
-0.00266157 
-0.000988901 
-0.00243207 
-0.00184842 
-0.00197916 
-0.00294455 
-0.00295596 
-0.00203331 
-0.00189655 
-0.00200717 
-0.000593679 
-0.00194007 
-0.000453695 
-0.000646497 
0.000152006 
-0.00447695 
-0.00356293 
-0.00525326 
-0.00643595 
-0.00180271 
0.00690004 
-0.00266173 
-0.000230295 
0.00614848 
-0.00350365 
-0.00602701 
0.00775105 
0.00734464 
-0.00175809 
-0.00738135 
0.00401734 
0.00326996 
0.00914114 
-0.00257448 
0.000503437 
-0.00120813 
0.00722785 
0.0137675 
-0.00517954 
-0.000147284 
0.00469295 
0.000868463 
-0.00410766 
-0.00761305 
0.00701797 
-0.00330674 
0.000500395 
-0.00743589 
-0.0102248 
-0.00330396 
-0.00274869 
-0.00271494 
-0.000651806 
-0.0108246 
0.00491719 
0.00497428 
-0.00261432 
-0.00797442 
-0.0108351 
9.94422e-05 
-0.00330906 
-0.00754029 
-0.00233438 
-0.0039038 
-0.0040706 
-0.0090623 
-0.00604152 
-0.00569692 
-0.00480166 
-0.000535619 
0.0010404 
0.00306275 
-0.000348856 
0.00363761 
0.0132281 
0.00309375 
0.00654104 
0.00926412 
0.0030476 
0.00776411 
0.00537389 
0.00251061 
-0.000572091 
0.00860038 
0.00284844 
0.00880184 
0.00120661 
-0.00362918 
-0.00585331 
-0.0016239 
-2.51124e-05 
-0.00726422 
-0.012037 
-0.00581679 
-0.00628222 
-0.00960284 
-0.00735867 
-0.0068466 
-0.00482671 
-0.000139258 
-0.00253007 
-0.0061661 
-0.00565256 
-0.00468855 
-0.00560551 
-0.00103277 
-0.00655445 
-0.00705961 
-0.0040117 
-3.08425e-05 
-0.00509279 
-0.00507789 
-0.0008247 
0.0011014 
-0.000441759 
-0.000138167 
-0.00273604 
0.00301694 
0.00439746 
0.000796303 
-0.00111997 
4.18128e-05 
-0.000981902 
0.0075511 
-0.00671872 
0.00232571 
0.00508498 
-0.00440191 
-0.00587032 
-0.00748818 
-0.00381482 
-0.00373458 
-0.00421768 
-0.00476767 
-0.00708926 
-0.00398872 
-0.00531675 
-0.00687967 
-0.00553288 
-0.0079717 
-0.00791102 
-0.00677841 
-0.00726744 
-0.00641081 
-0.00778925 
-0.00798765 
-0.00707739 
-0.00676351 
-0.00723657 
-0.00726409 
-0.0052018 
0.00556472 
-3.3235e-05 
-0.00543631 
-0.0086339 
-0.00360281 
-0.00251929 
-0.00875055 
-0.00984432 
-0.00502627 
-0.00816068 
-0.00944542 
-0.00336765 
-0.0112962 
-0.00980993 
-0.00739212 
-0.00898041 
-0.00901514 
-0.0105428 
-0.0111303 
-0.0110749 
-0.00220074 
-0.00753447 
-0.0083387 
-0.00701389 
-0.00608427 
-0.00513743 
-0.0020683 
0.00705759 
-0.00962452 
-0.00542694 
0.00198412 
-0.00206413 
-0.0056361 
-0.00694573 
-0.00685906 
-0.00792942 
-0.00117919 
-0.0035188 
0.013699 
0.00353221 
0.00105585 
0.0102551 
-0.00135197 
0.00989243 
0.013751 
0.00431285 
-0.0100314 
-0.00886958 
-0.00763658 
-0.00882907 
-0.00679384 
-0.0068966 
0.00280377 
0.00387976 
-0.00173824 
0.000597908 
-0.00193535 
0.00347281 
-0.0064106 
-0.00713042 
-0.00364518 
0.0091097 
-0.00700083 
-0.00324905 
-0.000767927 
-0.0083801 
0.0136562 
0.000780648 
-0.00743509 
-0.00818468 
0.00250821 
-0.00421933 
-0.00653075 
0.00743831 
-0.00375383 
-0.00528862 
-0.0101514 
0.00245187 
-0.00268454 
-0.0026662 
-0.0093784 
-0.00795729 
0.00015807 
-0.010697 
-0.00306503 
-0.00945898 
0.00656583 
-0.00466079 
-0.00493538 
-0.00738656 
-0.00616948 
-0.00488758 
0.000401629 
-0.0095474 
-0.00582408 
-0.00450244 
-0.00606976 
-0.00951828 
-0.00711643 
-0.00689708 
-0.00558607 
-0.00869742 
-0.00506932 
0.000773308 
0.00611237 
0.0156768 
0.00389671 
-0.0043245 
-0.00764777 
-0.00777386 
-0.00956703 
-0.00857653 
-0.0131521 
0.00653357 
-0.00475075 
-0.00863489 
-0.00983773 
-0.00367378 
-0.000647612 
0.00465494 
-0.00226051 
0.000393333 
-0.00742039 
0.0131838 
0.00802047 
-0.00513652 
-0.0123294 
-0.0111412 
ITEM: TIMESTEP
3250000
ITEM: NUMBER OF ATOMS
416
ITEM: BOX BOUNDS pp pp ff
-1.5750970182000000e+01 1.6036605587000000e+01
-1.6275814454999999e+01 1.7531115324000002e+01
-3.3383603858000001e+01 3.3383603858000001e+01
ITEM: ATOMS q 
-0.00584383 
-0.00755342 
-0.00619173 
-0.00436182 
-0.00536167 
-0.00766097 
-0.00833312 
-0.00744697 
-0.00275711 
-0.00437083 
-0.00598357 
-0.00547016 
-0.00625892 
-0.00639696 
0.00478518 
0.00752688 
0.0044067 
0.000382351 
-0.00148707 
0.00794486 
0.00575985 
-0.00298435 
-0.00708504 
-0.00440936 
-0.00432785 
-0.00658277 
-0.00663168 
-0.00630545 
-0.00818796 
-0.00446495 
-0.00589408 
-0.00755342 
-0.00422628 
0.00218063 
-0.00892592 
-0.00773048 
-0.00311371 
-0.00105596 
-0.0080737 
-0.0050743 
-0.00234547 
-0.000226007 
0.0123771 
0.00644141 
0.00931417 
0.015448 
0.00485806 
0.0122375 
0.0101698 
0.00111786 
-0.000289819 
-0.00268841 
-0.00629407 
-0.00354476 
-0.00237468 
-0.00461479 
-0.00377923 
-0.00244704 
1.86079e-05 
-0.00127032 
-0.00187195 
-0.00165638 
-0.000748405 
-0.000245794 
-0.00147624 
-0.00173718 
-0.00274002 
-0.0064357 
-0.00267008 
-0.00329265 
-0.00480425 
-0.0047748 
-0.00206352 
-0.00255838 
-0.00329478 
-0.00336205 
-0.0020348 
-0.00217481 
-0.00310813 
-0.00323905 
-0.00282173 
-0.00231624 
-0.00201728 
-0.00211096 
-0.00531653 
-0.00465744 
-0.00348796 
-0.00280817 
-0.00726251 
-0.00820524 
-0.00581362 
-0.0029901 
-0.0019354 
-0.002066 
-0.00210836 
-0.00235024 
-0.000861796 
-0.00190831 
-0.00274149 
-0.00447517 
0.00416198 
0.00339379 
3.63941e-05 
-0.00132396 
-0.00680364 
-0.00589958 
-0.00617786 
-0.00115707 
-0.00706543 
-0.00768289 
-0.00207446 
0.0041415 
-0.0061974 
-0.00643026 
-0.000203598 
0.0010408 
-0.00669051 
-0.00530068 
0.00219231 
-0.00427749 
-0.00361246 
-0.00436409 
0.00705808 
0.00424762 
-0.00257421 
-0.00736031 
0.00280759 
0.00348597 
-0.00609481 
-0.00864825 
-0.00683398 
-0.010275 
-0.00129505 
-0.00241095 
0.00233531 
0.00812559 
-0.00237485 
0.00493827 
-0.00199027 
-0.00409164 
0.00668328 
-0.000650839 
-0.00589109 
-0.00634051 
-0.0023031 
-0.00133902 
-0.00541243 
-0.00423579 
-0.00640579 
-0.00554483 
-0.00513013 
-0.00396482 
0.00207387 
0.000439152 
0.00366763 
0.0123404 
-0.00210514 
-0.000761409 
-0.00391556 
-0.00187287 
-0.0034734 
-0.00642227 
-0.0034351 
-0.00560164 
-0.00260744 
-0.00610065 
-0.00644225 
-0.00706089 
-0.000494008 
-0.00633178 
-0.00703699 
-0.00422757 
-0.00579828 
-0.00525433 
-0.00231544 
-0.00758296 
-0.00492636 
-0.00644325 
-0.00564706 
-0.00392115 
-0.00451984 
-0.00492389 
-0.00369006 
-0.00493618 
-0.005752 
-0.00120591 
-0.00529843 
0.0086337 
0.00245339 
-0.00943035 
-0.00816232 
-0.00245383 
0.013304 
-0.00354659 
0.000317892 
0.0062297 
0.00159124 
-0.000663666 
0.0177902 
0.00762201 
-0.00013465 
-0.00734105 
-5.51028e-05 
-0.00538489 
0.000726316 
0.00823207 
0.0104353 
-0.00654988 
-0.00673528 
-0.00656302 
-0.0078062 
-0.00827286 
-0.0110989 
-0.0100893 
-0.00992319 
-0.00956898 
-0.00855393 
-0.010901 
-0.0104824 
-0.00845235 
-0.00611628 
-0.00598251 
-0.00738133 
-0.0065236 
-0.00441776 
-0.00407271 
-0.00911343 
-0.00840417 
-0.00862486 
-0.0125469 
-0.00737179 
-0.0100317 
-0.0123734 
-0.00977549 
-0.00547025 
-0.00681237 
6.81618e-05 
-0.00155678 
0.0168779 
0.00925205 
0.00308234 
0.000860667 
0.000619602 
0.00683348 
-0.00121681 
-0.00690827 
-0.00525527 
-0.00734715 
-0.00149536 
-0.00411572 
-0.00187122 
-0.000858529 
-0.00200492 
-0.00169895 
-0.00535171 
-0.00299716 
-0.00244243 
-0.00595599 
-0.00240697 
-0.00451269 
-0.00475498 
-0.00603105 
-0.00448019 
-0.00625379 
-0.0054981 
-0.00167246 
0.00354822 
0.00120722 
0.00211445 
0.00446057 
-0.00390339 
0.00493371 
0.00580118 
0.0011665 
-0.000972422 
-0.00615119 
0.00174471 
0.00377303 
0.00157135 
-0.00166673 
-0.00200656 
-0.00173683 
-0.0042117 
-0.0089037 
-0.0018966 
-0.00504891 
-0.00941084 
-0.0108386 
-0.00909277 
-0.00575995 
-0.00348526 
-0.00639858 
-0.00795034 
-0.00942472 
-0.00828231 
-0.00839675 
-0.0061255 
-0.00822845 
-0.00917347 
-0.00914876 
-0.00592898 
-0.00477962 
-0.00908605 
-0.0103811 
-0.0087339 
-0.00838035 
-0.00735906 
-0.00716 
-0.00917256 
-0.00832744 
-0.00693795 
-0.00538527 
-0.00373701 
-0.00949534 
-0.0127605 
-0.00947929 
-0.010839 
-0.00642779 
-0.00774379 
-0.00875862 
-0.00968776 
-0.0120828 
-0.0104785 
-0.00799223 
-0.00495182 
-0.00403496 
-0.00985619 
-0.00566298 
-0.00476487 
-0.00663808 
-0.00719852 
-0.00752948 
-0.00736341 
-0.00515912 
-0.00552003 
-0.00500543 
-0.00371139 
-0.00279967 
-0.00612224 
-0.00668799 
-0.00626844 
0.0111316 
-0.00219542 
0.00907358 
0.00404063 
-0.00535419 
0.00121989 
-0.0114438 
-0.0115784 
0.00518371 
0.000878709 
0.00649183 
0.0034612 
-0.00822039 
0.00699061 
-0.00216676 
-0.00611164 
-0.000523195 
-0.00791813 
-0.00818248 
-0.00782302 
-0.00260127 
0.00429554 
-0.00786897 
-0.00610437 
0.00204898 
0.000741613 
-0.0105848 
-0.00743246 
-0.00902052 
-0.0132453 
-0.00598983 
-0.00574015 
0.0137465 
-0.00674244 
0.00706639 
-0.00110422 
0.0137547 
-0.0028037 
0.00326519 
-0.00264987 
-0.000977437 
-0.00252043 
0.00422635 
0.0109745 
-0.00777928 
0.00049169 
0.0071028 
0.00271197 
0.00576096 
-0.00526188 
0.00347761 
-0.00792916 
-0.000218459 
-0.00221635 
-0.0126034 
-0.0103635 
0.00632777 
-0.0140433 
-0.00827677 
-0.00263429 
-0.000768174 
-0.0106274 
-0.00447536 
-0.00781179 
0.0057832 
-0.00683636 
-0.0139823 
0.0120208 
0.00120156 
-0.0126511 
-0.010031 
-0.00366128 
-0.000519025 
-0.0087693 
-0.00600608 
ITEM: TIMESTEP
3300000
ITEM: NUMBER OF ATOMS
416
ITEM: BOX BOUNDS pp pp ff
-1.5750970182000000e+01 1.6036605587000000e+01
-1.6275814454999999e+01 1.7531115324000002e+01
-3.3383603858000001e+01 3.3383603858000001e+01
ITEM: ATOMS q 
0.00143254 
0.00412557 
0.00575219 
-0.000701974 
-0.00277165 
-0.000759701 
-0.00296125 
-0.0049491 
-0.0105647 
-0.00650177 
-0.00507137 
-0.00574312 
-0.0121078 
-0.0089222 
-0.00399947 
-0.0048429 
-0.00764513 
-0.00888997 
-0.00724605 
-0.00732812 
-0.00922487 
-0.0112923 
-0.00636803 
-0.00874147 
-0.0122703 
-0.0112937 
-0.00611449 
-0.00745532 
-0.00963472 
-0.00817496 
-0.00331603 
-0.00790999 
-0.0070422 
-0.00285567 
0.00404847 
0.00201837 
0.00130692 
0.00292312 
0.00325571 
0.00450742 
-0.00547539 
-0.00575653 
-0.00294188 
-0.00445183 
-0.00421138 
-0.00318255 
-0.00219406 
-0.00297721 
-0.0033737 
-0.00462803 
-0.00539851 
-0.00695227 
-0.00396829 
-0.00373239 
-0.00858448 
-0.00836389 
-0.00904709 
-0.0124913 
-0.00483904 
-0.00888117 
-0.00987934 
-0.0074734 
0.00153239 
-0.00192651 
-0.00464233 
-0.00431193 
-0.00811548 
-0.0111705 
-0.0159222 
-0.0151547 
-0.0153746 
-0.0153209 
-0.00750782 
-0.0128036 
-0.0117057 
-0.00686546 
-0.00493642 
-0.00533927 
-0.00503791 
-0.00377233 
-0.00763321 
-0.00273817 
-0.00473724 
-0.00741113 
-0.00575627 
-0.0101549 
-0.0100929 
-0.00367064 
0.00256608 
0.000523831 
0.00487724 
0.00930716 
-0.00471501 
-0.00413887 
-0.00357369 
-0.00325894 
-0.00240808 
-0.00435847 
-0.00372309 
-0.00375093 
0.00172472 
-0.0022197 
-0.00518797 
-0.00595133 
-0.00113924 
0.00684445 
0.0116813 
0.00900228 
-0.00409507 
0.00428712 
0.0106812 
0.00696802 
-0.0101121 
-0.00304098 
0.00172976 
-0.00694949 
-0.00956655 
-0.00955135 
-0.00122975 
-0.00692018 
-0.00781726 
-0.00635045 
-0.00256508 
-0.00487846 
-0.00696445 
-0.00709795 
-0.00935041 
-0.00977082 
-0.0106786 
-0.00535026 
-0.0111934 
-0.00839332 
-0.0026569 
0.000581051 
-0.00413825 
-0.00135254 
0.006832 
0.00529729 
-0.00800342 
-0.00936512 
0.000448354 
-0.00439718 
-0.00518412 
0.00405519 
-0.00141991 
0.00694682 
0.0127472 
0.00716791 
-0.00710442 
-0.00344272 
-0.00877731 
-0.0049739 
-0.000940147 
-0.00791118 
-0.00798031 
-0.00628379 
-0.00931712 
-0.00667815 
-0.0031423 
-0.00740077 
-0.00585374 
-0.00343433 
-0.00709131 
-0.00408633 
-0.00304739 
-0.00488266 
-0.00247086 
-0.00493364 
-0.00909692 
-0.00369632 
-0.0128709 
-0.00946389 
-0.0140426 
-0.00858774 
-0.00594013 
-0.00504339 
-0.0131584 
-0.00748072 
-0.00837255 
-0.00732937 
-0.00310677 
-0.00623981 
-0.00345142 
-0.0118278 
-0.00204505 
-0.00895375 
-0.00489538 
-0.00398927 
-0.00285697 
-0.00291184 
0.000578501 
-0.00223562 
-0.00657535 
-0.00262369 
-0.00528578 
-0.00280561 
-0.00546225 
-0.00361487 
-0.00364868 
-0.0028478 
-0.00637571 
-0.00575833 
0.00285946 
-0.00424433 
-0.00150545 
-0.00246782 
0.000854501 
-0.00373821 
-0.00716068 
-0.00254459 
0.00509518 
0.000949513 
-0.00123817 
-0.00517546 
-0.00378575 
0.0029541 
0.00610818 
0.00944902 
0.0116672 
0.00526625 
0.00966888 
0.00447127 
0.00366272 
0.00579244 
-0.0013873 
-0.00436753 
-0.000891764 
-0.00167512 
-0.00297 
-0.00517764 
-0.00313027 
-0.00321631 
-0.00616811 
-0.0073368 
-0.00664906 
-0.00789496 
0.00386162 
-0.00333637 
-0.00777851 
-0.00396972 
-0.00587324 
-0.0057765 
-0.00876765 
-0.00702866 
-0.00343153 
0.00336228 
-0.00433383 
0.00591564 
-0.00588318 
-0.00593399 
-0.00586306 
-0.00681556 
-0.00662345 
-0.00542847 
0.00270691 
-0.00357223 
-0.0047141 
-0.00418689 
-0.000549815 
-0.00527153 
-0.00462826 
0.0081566 
-0.00559494 
-0.00409781 
0.000878405 
-0.0023623 
-0.0010339 
-0.00192137 
-0.00121129 
-0.00160482 
-0.00658382 
-0.00190963 
-0.002384 
-0.00508329 
0.00132179 
-0.00643382 
-0.00406865 
-0.00368094 
-0.00518981 
-0.00410643 
-0.00711323 
-0.00777152 
-0.00676357 
-0.00258908 
-0.00546973 
-0.00718883 
-0.00201739 
0.00679777 
-0.0111646 
-0.00984965 
-0.00669005 
-0.0067231 
-1.16322e-05 
-0.00435011 
-0.00353193 
0.00520954 
-0.00111665 
0.00459922 
0.0119285 
0.0188289 
-0.00720463 
-0.00722042 
-0.00147333 
-0.000399501 
0.00293843 
-0.00590092 
-0.00530751 
-0.00750874 
0.0165081 
0.00689653 
-0.00494836 
-0.00552156 
-0.00711265 
-0.00683843 
-0.00601257 
-0.00426699 
-0.00546424 
-0.00670936 
-0.00499448 
-0.00414333 
-0.00458525 
-0.00435201 
-0.00466129 
-0.00680023 
-0.00181884 
-0.00376531 
0.00356266 
0.00622811 
0.00711751 
0.00524901 
-0.00172175 
0.00391072 
0.00425629 
-0.00139155 
-0.0118753 
-0.00727867 
-0.00819042 
-0.012704 
-0.0126136 
-0.013071 
-0.00284119 
-0.00213942 
-0.00799035 
-0.00110884 
-0.000856022 
0.000250855 
-0.00272592 
-0.00225511 
-0.00412613 
-0.00177799 
-0.00300453 
-0.00213876 
-0.00405888 
-0.00648247 
-0.00306822 
-0.00204414 
-0.00845622 
-0.00271106 
-0.00656854 
-0.00851381 
-0.00465696 
-0.00559375 
-0.00257877 
0.00144836 
-0.00587567 
-0.00379707 
0.00185795 
-0.00490736 
-0.00883396 
0.00155048 
0.0113754 
-0.0102352 
0.00633441 
0.00302264 
-0.00161957 
0.0169716 
0.00443847 
-0.000337965 
0.00465976 
0.00959459 
0.0087487 
0.00455271 
-0.00638396 
-0.00263002 
0.00707355 
-0.00625185 
0.0199699 
0.000437267 
-0.00478684 
0.000388912 
0.0141231 
0.00488014 
-0.0085912 
-0.00874454 
-0.00681233 
-0.0040887 
-0.0122303 
-0.0111444 
-0.00704379 
0.00652297 
-0.00744512 
-0.0114024 
-0.0130292 
-0.00904687 
-0.00361276 
-0.00734915 
-0.0123699 
-0.00323408 
-0.00963336 
-0.00703505 
0.00141598 
-0.0037189 
-0.00138869 
0.00371199 
-0.007646 
-0.00744496 
ITEM: TIMESTEP
3350000
ITEM: NUMBER OF ATOMS
416
ITEM: BOX BOUNDS pp pp ff
-1.5750970182000000e+01 1.6036605587000000e+01
-1.6275814454999999e+01 1.7531115324000002e+01
-3.3383603858000001e+01 3.3383603858000001e+01
ITEM: ATOMS q 
-0.0066172 
-0.00792809 
-0.00985043 
-0.0103392 
-0.00462359 
-0.00695927 
-0.0063068 
-0.0030553 
-0.00129666 
-0.00270989 
-0.00232107 
-0.00316142 
0.00480454 
0.00215767 
-0.00649401 
-0.00486163 
-0.00363504 
-0.00465446 
-0.0061549 
-0.00662149 
-0.00681531 
-0.00693322 
-0.00534399 
-0.00826605 
-0.00837361 
-0.00579725 
-0.00664417 
-0.00766366 
0.0084661 
0.00109928 
-0.000118004 
0.010746 
0.0065624 
-0.000433616 
-0.00583491 
-0.00416997 
-0.00162425 
-0.00362576 
-0.00259847 
-0.00216306 
-0.00630884 
-0.00604191 
-0.00659031 
-0.00964326 
-0.00934252 
-0.0061396 
-0.00468494 
-0.007176 
-0.00733852 
-0.00520824 
-0.00684474 
-0.00747286 
0.00279802 
-0.00456037 
0.00259838 
0.00556425 
-0.00258699 
-0.00907115 
-0.00699124 
-0.00561177 
-0.00968148 
-0.0131525 
-0.004507 
-0.00911842 
-0.0117167 
-0.00876598 
-0.00848106 
-0.00871452 
-0.0120216 
-0.0109667 
-0.0101353 
-0.00829871 
-0.0134606 
-0.0124476 
-0.0102412 
-0.0108556 
-0.00835648 
-0.0120368 
-0.0112853 
-0.00807272 
0.00589863 
-0.00120125 
-0.00320029 
-4.01206e-05 
0.0041931 
0.00684995 
0.0030489 
0.00124549 
-0.00496012 
-0.00174832 
-0.00143213 
-0.00531601 
-0.00204272 
-0.00512003 
-0.00544502 
-0.0030922 
-0.000501506 
-0.00113862 
-0.00205393 
-0.00176659 
-0.00383504 
-0.00173115 
-0.00195047 
-0.00253574 
-0.00480857 
-0.00345093 
-0.00360466 
-0.00589693 
-0.00506108 
-0.00516984 
-0.00629912 
-0.00651586 
0.00282854 
0.00125581 
0.00176494 
0.00738931 
0.0097924 
0.0131461 
-0.00397821 
-0.00137239 
0.00122396 
0.0052984 
-0.0071243 
-0.00528855 
-0.000165688 
-0.00499743 
-0.000859427 
-0.00583407 
-0.00814001 
-0.00758258 
-0.00291872 
-0.00560002 
-0.00734496 
-0.00765335 
-0.00945849 
-0.0117325 
-0.00714849 
-0.0090607 
0.00255801 
0.00374003 
0.000553543 
0.00644136 
0.00491579 
-0.00186442 
-0.00509013 
-0.00154401 
-0.00257958 
-0.00571888 
-0.00531781 
-0.00486944 
-0.00455373 
-0.00412166 
-0.00779255 
-0.00949355 
-0.00674206 
-0.00712726 
0.00552478 
-0.0035919 
-0.00469027 
-0.00509148 
0.000230373 
-0.00593286 
-0.0051704 
-0.00708656 
-0.00463871 
-0.00213957 
-0.00689273 
0.000700151 
0.00301411 
-0.00409265 
-0.00533753 
0.0127137 
0.000275011 
-0.000260604 
-0.00601105 
-0.00378282 
-0.00314085 
0.00829731 
0.000267272 
-0.00158957 
-0.00575021 
-0.00852858 
-0.00700838 
0.0074742 
-0.00384484 
-0.00380312 
-0.00211018 
-0.00170373 
-0.00190094 
-0.00226657 
-0.00208565 
-0.00212866 
-0.00202732 
0.00035292 
-0.00255781 
-0.00240573 
-0.00300639 
-0.00170861 
-0.00180588 
-0.00225686 
-0.00253367 
-0.00243321 
-0.00255148 
-0.0037525 
-0.00308092 
-0.00227911 
-0.00430766 
-0.00160141 
0.00901384 
0.00405947 
0.00295952 
0.00859068 
0.000879395 
0.0133842 
0.0162927 
0.00612581 
-0.00731757 
-0.00269814 
0.00119327 
-0.00234406 
-0.00345199 
-0.00284124 
-0.00326533 
-0.00667341 
-0.00525558 
-0.00913408 
-0.0017344 
-0.0054743 
-0.0104116 
-0.00980845 
-0.00328827 
-0.00563021 
-0.0090315 
-0.00848607 
-0.00518822 
-0.00671837 
-0.00221316 
-0.00520023 
-0.00407164 
-0.00248253 
-0.00581473 
-0.00754412 
-0.0090787 
-0.00750846 
-0.00794688 
-0.00766677 
-0.00830503 
-0.00755939 
-0.00656778 
-0.00531976 
-0.00899855 
-0.0101123 
-0.0076937 
-0.00501951 
-0.0048328 
-0.0069284 
-0.00605418 
-0.00274471 
-0.00129588 
0.000633167 
-0.00562117 
0.00321575 
-0.00160681 
0.0013514 
0.0122238 
0.0129041 
-0.00369515 
1.99622e-05 
0.00366481 
-0.0023666 
0.00306692 
0.000592389 
0.000351671 
0.00244605 
0.00458176 
0.00536816 
0.0102259 
0.0116306 
0.0101689 
0.0056969 
-0.00418637 
0.00219872 
0.000884509 
-0.00369932 
-0.00695107 
-0.0080445 
-0.00504438 
-0.00462956 
0.00261592 
0.00957553 
0.0100197 
0.00149565 
-0.0047421 
-0.00164276 
-0.00189654 
-0.00487964 
-0.00287573 
-0.00491803 
-0.00472763 
-0.00524757 
-0.0035316 
-0.00604102 
-0.00568145 
-0.000777646 
-0.0012388 
0.00054209 
0.00517836 
0.00832072 
-0.00589942 
-0.000398432 
0.00568407 
0.00278479 
-0.00775096 
-0.00399919 
-0.004498 
-0.00555923 
-0.0084518 
-0.00767549 
-0.00663192 
-0.0028928 
-0.00715791 
-0.00749287 
-0.00212273 
0.0084123 
-0.00349262 
0.00390608 
-0.00586196 
-0.00920505 
-0.00943555 
-0.00620033 
-0.000461397 
-0.00501231 
-0.0061341 
-0.004333 
0.0132372 
0.00453999 
-0.000868503 
-3.14129e-05 
0.00925854 
0.00311176 
-0.00421718 
-0.00786166 
0.00491979 
-0.00384694 
-0.0026856 
-0.00757734 
-0.00309896 
-0.00297821 
0.000110859 
-0.00732234 
-0.00666054 
-0.006499 
0.0032938 
-0.00480895 
-0.00737418 
-0.00294819 
-0.00419588 
-0.00337086 
-0.000360324 
0.00328181 
-0.0011054 
-0.00282503 
-0.00684311 
-0.00642398 
0.00232406 
-0.00543867 
-0.00296502 
0.00275691 
0.00107509 
-0.00124771 
-0.00278281 
0.00418535 
0.0013108 
-0.00888412 
-0.00379672 
-0.00405713 
-0.00403275 
-0.00754496 
0.000931929 
-0.00282815 
-0.00339047 
-0.00063313 
0.00241561 
-0.00563249 
-0.00617866 
-0.000815357 
-0.00159306 
-0.00651783 
-0.00373829 
-0.00539951 
-3.38183e-05 
-0.00395588 
-0.00878263 
-0.0025361 
-0.00429472 
0.00763162 
-0.00769315 
-0.00430303 
-0.0067834 
-0.00360127 
0.000739447 
-0.00420996 
-0.00575809 
0.00190515 
-0.00650374 
0.0035406 
-0.00427231 
-0.00721405 
0.000755333 
0.00781645 
-0.00165621 
-0.00398954 
0.00121548 
-0.00412797 
0.00259868 
-0.00196552 
ITEM: TIMESTEP
3400000
ITEM: NUMBER OF ATOMS
416
ITEM: BOX BOUNDS pp pp ff
-1.5750970182000000e+01 1.6036605587000000e+01
-1.6275814454999999e+01 1.7531115324000002e+01
-3.3383603858000001e+01 3.3383603858000001e+01
ITEM: ATOMS q 
0.00698371 
0.00446426 
-0.00369223 
-0.00533781 
-0.00272188 
-0.000395305 
-0.00503638 
-0.00444084 
-0.00118622 
-0.00576954 
-0.00413834 
-0.000427566 
-0.00310304 
-0.0057017 
-0.00775945 
-0.00814557 
-0.00891462 
-0.0105758 
-0.00191029 
-0.0068737 
-0.00854816 
0.00431173 
0.00415212 
0.00526112 
0.0111735 
0.00901241 
-0.00287819 
-0.00261524 
-0.0040795 
-0.0102138 
-0.00731598 
-0.00880601 
-0.0108518 
-0.00519884 
-0.00440337 
-0.00574691 
-0.000542633 
0.0111874 
-0.00235497 
0.00706901 
-0.00949926 
-0.00733906 
-0.00225179 
-0.00713591 
-0.00640906 
-0.00473971 
0.0204744 
0.00803956 
0.0026736 
0.00391202 
0.0184831 
0.00800925 
-0.00223595 
0.00695055 
0.00320739 
0.000673226 
0.0008819 
-0.00570154 
0.00921925 
0.00607128 
-0.00227762 
-0.00535498 
-0.00121336 
0.00485766 
-0.00189226 
-0.00563203 
0.00907275 
0.000650907 
-0.00933384 
-0.00206458 
-0.00327299 
-0.00917702 
-0.0102922 
-0.0113246 
-0.0115462 
-0.0118859 
-0.00775958 
-0.00859406 
-0.00934562 
-0.00691741 
-0.00724925 
-0.00601232 
-0.0038572 
-0.00310655 
-0.00518627 
-0.00544197 
-0.00338542 
-0.00439088 
0.00118814 
-0.00420015 
-0.00615257 
-0.0078952 
-4.43651e-06 
-0.00326615 
-0.00125836 
0.00370914 
0.0010374 
0.00645818 
0.00965777 
0.00619786 
-0.00805936 
-0.00179455 
0.000767666 
-0.00696854 
-0.00773668 
-0.00801489 
-0.00677169 
-0.00479448 
0.00456975 
-0.0035994 
-0.00264956 
-0.000896622 
0.00606168 
0.00678288 
0.00060533 
-0.000496068 
-0.00267017 
-0.00198499 
-0.00374312 
-0.00464759 
-0.00397525 
-0.0029942 
-0.0019015 
-0.00254189 
-0.00249783 
-0.00215447 
-0.00181586 
-0.00177894 
-0.00202121 
-0.00219065 
-0.00222579 
-0.00234832 
-0.0076353 
-0.0102208 
-0.00702888 
-0.00861943 
-0.00894688 
-0.00788064 
-0.00621339 
-0.00411117 
-0.00669635 
-0.00777184 
-0.00520819 
-0.00439717 
-0.000504186 
-0.00298558 
-0.00404869 
-0.00565311 
-0.00238342 
-0.00566825 
-0.00278407 
-0.00306704 
-0.00429089 
-0.00344185 
-0.00377508 
-0.00522135 
-0.0119672 
-0.00281164 
-0.00759197 
0.00741429 
-0.00939349 
-0.00499988 
0.00149863 
-0.0124164 
-0.0085385 
-0.00799033 
-0.00372934 
-0.0103694 
-0.00990569 
-0.00937367 
-0.00322651 
-0.0138345 
-0.00714937 
-0.0113953 
-0.00038178 
-0.00393391 
-0.0084332 
-0.0123729 
-0.00827294 
-0.00809659 
0.000909947 
-0.0133723 
-0.00852741 
-0.0102115 
-0.0104362 
-0.0043765 
-0.0110072 
-0.00451008 
-0.00585432 
-0.0102429 
-0.00782214 
-0.0116099 
-0.0109541 
-0.00954239 
-0.00555457 
-0.00486718 
-0.00105638 
-0.00868434 
-0.00727392 
-0.00203824 
-0.00523627 
-0.00861376 
-0.00765659 
-0.00942052 
-0.0076421 
-0.00818981 
-0.00767588 
-0.00829302 
-0.00300645 
-0.00383041 
-0.00486542 
-0.00343056 
-0.00220208 
-0.00253398 
-0.00198625 
-0.00196464 
-0.00239428 
-0.00226944 
-0.00250741 
-0.00304279 
-0.00333259 
-0.00389116 
0.000462527 
-0.00247385 
0.00339642 
0.0145395 
-0.000686077 
0.0049838 
0.012047 
0.00224098 
-0.00369197 
-0.00259895 
-0.00376266 
-0.00426854 
-0.00212696 
-0.00107388 
-0.00392261 
-0.00517465 
-0.00651078 
-0.00607589 
-0.00679145 
-0.00834626 
-0.00298606 
-0.00682824 
-0.00785724 
-0.00575848 
0.00202089 
-0.000922667 
-0.0024792 
0.00467292 
-0.00720515 
-0.00180096 
0.00485994 
0.0032012 
-0.00629157 
-0.00781359 
-0.00493625 
-0.00791633 
-0.0040046 
-0.00673447 
0.00616517 
-0.000854891 
0.0101691 
0.00639129 
0.00107667 
-0.00254336 
0.00147263 
0.00496165 
-0.000999486 
-0.00412641 
-0.00351973 
-0.00390393 
-0.00523152 
-0.00842288 
-0.00270451 
-0.000310691 
-0.00241453 
-0.000679479 
0.00429713 
0.00594532 
-0.00625279 
-0.0016534 
0.00307084 
-0.00138641 
-0.00774668 
-0.00615174 
-0.00568902 
-0.00817266 
0.00627341 
0.00221821 
-0.00168274 
-0.0019106 
-0.000869554 
0.00523975 
0.000369159 
-0.0074051 
-0.00433984 
-0.00360184 
-0.00638901 
-0.00813709 
-0.00993895 
-0.00980073 
-0.00929193 
-0.00783097 
-0.0104971 
-0.0113507 
-0.0105976 
-0.00839258 
-0.00976011 
-0.00993945 
-0.00830002 
-0.00440106 
0.0052043 
-0.00331139 
-0.00626322 
-0.007961 
-0.00267201 
-0.00154914 
-0.00888016 
-0.00548174 
-0.00399202 
-0.00688626 
-0.005136 
-0.00358358 
-0.00158766 
-0.00383424 
-0.00720604 
-0.0059129 
-0.00112676 
0.00365749 
0.00301346 
-0.00198251 
0.00273787 
0.00415326 
0.00558961 
0.0144293 
0.0104158 
0.0053473 
0.00182023 
0.00461278 
-0.00776708 
0.00226286 
-0.00652115 
0.00766337 
0.0138405 
-0.00974126 
0.013085 
-0.00266425 
-0.00454639 
-0.0112745 
-0.00426488 
0.00569595 
-0.00417997 
-0.00789159 
-0.0111428 
0.00414263 
-0.00772285 
0.00934606 
-0.00897809 
-0.00246517 
-0.00426934 
-0.0102022 
-0.00894903 
-0.00761506 
-0.00504712 
-0.0040695 
-0.00256735 
-0.00134692 
-0.00423053 
-0.00400387 
-0.00893483 
-0.00238922 
-0.000109877 
0.00036429 
-0.00422253 
-0.00792724 
-0.00562954 
0.00304564 
0.00187999 
-0.0046796 
-0.00903973 
-0.00646036 
0.00323158 
0.0181368 
-0.00686816 
-0.00606869 
-0.00726954 
0.0110667 
0.0125134 
0.00148942 
-0.00448306 
-0.00632265 
-0.00221618 
-0.00449482 
-0.00409374 
-0.0097935 
-0.00587895 
0.000879341 
-0.000635069 
0.00659233 
0.00628584 
0.000542028 
-0.00616064 
-0.00679186 
-0.0011725 
-0.0107058 
-0.00863005 
0.000891451 
-0.00729419 
-4.39686e-05 
-0.00518876 
-0.00535453 
-0.00405961 
-0.00611879 
0.00767131 
0.0051754 
ITEM: TIMESTEP
3450000
ITEM: NUMBER OF ATOMS
416
ITEM: BOX BOUNDS pp pp ff
-1.5750970182000000e+01 1.6036605587000000e+01
-1.6275814454999999e+01 1.7531115324000002e+01
-3.3383603858000001e+01 3.3383603858000001e+01
ITEM: ATOMS q 
0.00189751 
-0.000652926 
-0.00927224 
-4.28703e-05 
-0.0036005 
-0.00579628 
0.00113681 
0.00583919 
0.00192467 
-0.00263839 
-0.0014439 
-0.00298134 
0.00698936 
-0.00133039 
0.00468253 
0.00251034 
0.00995366 
0.00396826 
0.0109009 
0.0103073 
0.0020759 
-0.00247679 
-0.00171436 
0.00526157 
0.000442058 
-0.00814058 
-0.00953076 
-0.0119566 
0.0147974 
-0.00529662 
0.00592927 
0.0109708 
-0.000556839 
-0.00428452 
-0.00157656 
-0.000601106 
-0.00178122 
-0.00377496 
-0.00459242 
-0.00499605 
-0.0120004 
-0.0113922 
-0.00841834 
-0.0109478 
-0.00990612 
-0.0090386 
-0.00456018 
-0.00675473 
-0.00751775 
-0.0061251 
-0.00198928 
-0.00196161 
-0.00494302 
-0.00215813 
-0.00726462 
-0.00702124 
-0.00227063 
0.00244278 
-0.007585 
-0.00853485 
-0.00300316 
-0.0011921 
0.00662481 
-0.000138572 
0.00165934 
0.00525283 
0.00114034 
-0.000156691 
0.0115638 
0.00920923 
0.00655734 
0.00917881 
0.00356011 
0.0117222 
0.0142686 
0.014175 
-0.00132333 
0.00047072 
0.00504976 
0.000793497 
0.00167853 
0.00823406 
0.00617898 
-0.00273831 
-0.0066549 
-0.00486457 
-0.0054057 
-0.00891855 
0.00206527 
-0.00702555 
-0.00903989 
-0.0104231 
-0.0055039 
-0.00353592 
-0.00376662 
-0.0035796 
-0.00905746 
-0.00663333 
-0.0039003 
0.00220526 
-0.00604955 
-0.00376556 
0.0083488 
0.014421 
0.00176222 
0.00538062 
0.0036568 
0.003394 
-0.00617808 
-0.00345858 
-8.06164e-05 
-0.0052906 
-0.00923936 
-0.00687899 
-0.00906842 
-0.010862 
-0.0094888 
-0.00758011 
0.00517601 
0.00425535 
0.00597082 
0.00749308 
-0.0069076 
0.00075479 
0.000597988 
-0.00588485 
-0.0110104 
-0.0109633 
-0.00843485 
-0.00671311 
-0.00674993 
-0.00544905 
0.00112058 
-0.00653823 
-0.00193788 
-0.00565413 
-0.00980153 
-0.0073253 
-0.0110088 
-0.00430778 
-0.0093617 
-0.0095546 
-0.00481026 
-0.00520077 
-0.00659239 
-0.00828781 
-0.00774242 
-0.00857595 
-0.00557234 
-0.00753362 
-0.00378311 
-0.00464409 
-0.00448872 
-0.0028358 
-0.00428588 
-0.00522615 
-0.00954182 
4.64579e-06 
0.000838705 
-0.0032298 
-0.0082897 
-0.000578758 
-0.00676507 
0.00183503 
-0.00206952 
-0.00428966 
-0.000625132 
-0.00336903 
-0.00812297 
-0.00261579 
-0.00397733 
-0.00895813 
-0.00690549 
0.00212061 
0.00910068 
0.00246275 
0.000136547 
-0.00485326 
-0.00975007 
-0.00672641 
-0.00458023 
0.0103114 
0.000542851 
-0.0100565 
-0.00319488 