ITEM: TIMESTEP
3200000
ITEM: NUMBER OF ATOMS
416
ITEM: BOX BOUNDS pp pp ff
-1.5750970182000000e+01 1.6036605587000000e+01
-1.6275814454999999e+01 1.7531115324000002e+01
-3.3383603858000001e+01 3.3383603858000001e+01
ITEM: ATOMS q 
-0.00174764 
-0.0015754 
-0.000727002 
-0.00303803 
0.0018297 
-0.00250427 
-0.00524015 
-0.00548793 
0.0127689 
0.00681308 
-0.00054684 
-0.00196665 
0.00290239 
0.0165091 
0.0173938 
0.00927507 
-0.00699763 
-0.00159218 
0.00418648 
-0.000234792 
-0.00437205 
-0.00517261 
-0.00444577 
-0.00386272 
0.0124517 
0.0113789 
0.00298055 
-0.00146 
0.00363613 
0.01017 
0.000687518 
-0.0020318 
-0.00241147 
-0.00353058 
-0.00210198 
-0.00203722 
0.00454928 
0.00142173 
-0.00227168 
-0.00200246 
-0.000850821 
0.00855279 
0.00178104 
0.00450599 
0.0160589 
0.0176861 
-0.000965102 
0.00325501 
0.00868506 
0.00568383 
-0.000195978 
0.00237156 
0.0118648 
0.0031571 
0.00409687 
0.0122523 
0.0072299 
0.00308102 
-0.00488258 
-0.00100751 
0.000531393 
-0.00159632 
-0.00478576 
-0.00276753 
0.000469428 
0.00753144 
0.00325533 
0.0037993 
0.00839746 
0.0109986 
-0.000288871 
0.00231369 
0.0039051 
0.000965214 
-0.000695695 
0.000414294 
-0.00330239 
-0.00179659 
-0.00058417 
-0.00125471 
-0.00174155 
-0.00106088 
-0.000666008 
-0.000975867 
-0.000771965 
0.00157832 
-0.000416871 
-0.000382399 
0.00139543 
0.0029862 
-0.00113244 
0.00308072 
-8.3618e-05 
-5.66711e-06 
0.00304745 
0.00396899 
0.00376163 
0.00212465 
0.00239576 
0.00102987 
0.0120817 
0.0122389 
0.0102436 
0.0106516 
0.00414927 
-0.0076091 
-0.00879871 
-0.00430929 
0.00125328 
0.00216168 
-0.00252717 
-0.00106157 
-0.00406568 
-0.00300287 
-0.00147028 
-0.000899721 
0.00198465 
0.00899217 
0.0157685 
0.0160603 
0.00116204 
0.00510494 
0.0127087 
0.0113918 
0.00064677 
0.00257311 
0.00490561 
0.00249711 
0.00608687 
-0.00168774 
-0.000674143 
-9.83056e-05 
0.0121122 
0.00777935 
0.000911456 
-0.00283392 
0.00560639 
0.00488783 
-0.00241738 
-0.00278627 
0.00185422 
-3.42801e-05 
-0.00052898 
0.000481052 
0.000549634 
-8.91608e-05 
-0.00467796 
-0.00146308 
-0.00105053 
0.000389461 
-0.00419977 
-0.00506496 
-0.000372574 
0.0108816 
-0.00121007 
0.00881884 
0.00771962 
-0.001696 
0.0124073 
0.00975428 
-4.71585e-05 
-8.35776e-05 
-0.000927442 
0.00264664 
0.000786283 
6.32172e-05 
-2.94307e-05 
0.000499602 
-0.00158112 
0.0105372 
0.00472272 
0.00328873 
0.00658827 
0.0105539 
0.00691296 
0.0136179 
0.0166303 
0.013991 
0.00289055 
0.00522561 
0.00522764 
0.0058274 
0.00840012 
0.0104402 
0.0129984 
0.0206317 
-0.00453389 
0.00211732 
0.010008 
0.003776 
-0.00487302 
-0.00888752 
-0.0056635 
-0.00406101 
0.00111436 
-0.000446729 
0.0121064 
0.00060225 
-0.00343339 
-0.00200048 
0.00548057 
0.00526973 
-0.00128934 
-0.00248186 
0.00361689 
0.00479835 
0.00404153 
0.00926014 
0.0119381 
0.00195034 
-0.00272419 
-0.00230897 
0.0118071 
0.0110662 
0.00112666 
-0.00216121 
0.00240504 
0.00411637 
-0.000249375 
-0.00217978 
-0.00356347 
-0.00271424 
-0.000254698 
0.00638555 
-0.00497041 
-0.00394667 
0.00153481 
0.00681004 
-0.00185917 
-0.0030234 
0.00255115 
0.00515239 
-0.000320541 
-0.000192571 
-0.00112294 
-0.000904025 
0.00243939 
0.000585203 
0.000704216 
0.00140451 
0.0157285 
0.00793616 
0.00763284 
0.00901707 
0.0143048 
0.00895402 
-0.00049924 
0.000157743 
0.00131943 
0.000932894 
-0.00135926 
-0.00146228 
-0.000538241 
1.19366e-05 
-0.000629315 
-0.00379835 
-0.00315467 
-0.00278486 
-0.00356012 
-0.00433623 
0.0103247 
0.00047377 
0.00366152 
0.000604403 
-0.00194622 
-0.00339235 
0.0145417 
0.00670081 
0.00160752 
0.00306019 
0.010168 
0.00487399 
-0.00373293 
-0.00290815 
-0.00663486 
-0.007541 
-0.00581258 
-0.000837047 
0.00208057 
-0.002576 
0.001988 
0.00855834 
0.00263483 
0.0049734 
0.00326103 
0.000132759 
-0.00232128 
-0.00129402 
-0.00132911 
0.00047344 
-0.00271096 
-0.00139068 
0.00271371 
0.00682337 
0.00243574 
-0.00151326 
0.00121797 
-0.00246819 
-0.000743273 
0.00134997 
0.000662427 
-0.00271013 
-0.0032503 
-0.00764662 
0.0149064 
0.0107284 
0.00202617 
0.00440107 
-0.00150871 
0.00906929 
0.00653733 
0.0013046 
0.016745 
0.00755198 
0.00406687 
0.00498252 
0.0154298 
0.0177833 
0.0104452 
0.00308549 
0.00916906 
0.0159238 
0.00586248 
-0.00210182 
0.000157825 
0.000394063 
-1.81127e-05 
-0.0001966 
-0.00175273 
0.00022563 
-5.9193e-05 
0.00187238 
-0.00444967 
-0.00339887 
0.00198227 
0.0070851 
-0.000123228 
0.00180141 
-0.000359023 
-0.00223137 
0.00505119 
0.0020539 
0.00107603 
0.00559764 
0.00491851 
0.0130239 
0.015187 
0.012828 
0.00400892 
0.0084028 
-0.0022762 
-0.00214394 
0.00383784 
0.00878507 
0.00095805 
-0.00196901 
0.00540363 
0.00333176 
0.011866 
0.00618073 
0.00134786 
0.00186827 
0.00858549 
0.00593855 
-0.00057665 
0.00240551 
0.00623017 
0.00395613 
0.00275538 
-0.00209625 
0.00636028 
0.00737475 
-0.000328737 
-0.0043401 
0.001186 
-0.00174938 
0.00163879 
0.00718054 
-0.00607586 
-0.00372418 
0.00263097 
-0.000325923 
-0.00711935 
-0.00572259 
-0.00568121 
-0.00698418 
-0.00179431 
-0.00375999 
-0.000691337 
0.00309819 
-0.0036167 
-0.0044829 
0.00315655 
0.0147727 
-0.000628948 
0.00149934 
0.0115386 
0.00838264 
0.00101658 
1.24567e-05 
0.00157499 
0.000264744 
0.0104537 
0.00078356 
0.0151123 
0.0155748 
0.0083452 
0.00297627 
0.00640925 
0.00894654 
0.00274828 
-0.000199335 
0.00105194 
0.000609592 
9.3044e-06 
-0.000355048 
ITEM: TIMESTEP
3250000
ITEM: NUMBER OF ATOMS
416
ITEM: BOX BOUNDS pp pp ff
-1.5750970182000000e+01 1.6036605587000000e+01
-1.6275814454999999e+01 1.7531115324000002e+01
-3.3383603858000001e+01 3.3383603858000001e+01
ITEM: ATOMS q 
0.00159612 
0.0012747 
0.00101002 
0.00903746 
0.00319096 
0.00518795 
0.0144224 
0.0183881 
-0.0012319 
0.00224958 
0.00667766 
-0.00137846 
0.00752241 
-0.000365674 
-0.000134065 
-0.00409968 
0.0184908 
0.0127128 
0.00150969 
0.00372835 
0.00298292 
0.0148421 
0.0130801 
0.00459048 
0.000200161 
-0.00276711 
-0.00677385 
-0.00371963 
0.0109231 
0.00592988 
0.00575878 
0.0190385 
0.00301063 
0.00995006 
0.0149009 
0.00646717 
-0.00299221 
-0.0055679 
-0.00489445 
-0.00603672 
-0.00207612 
-0.00192473 
0.0167652 
0.00286754 
0.000527551 
0.00441579 
0.00835822 
0.0130884 
0.00522468 
0.00277825 
2.59803e-06 
0.00132195 
-0.00459049 
-0.00775352 
-0.00449 
-0.00757872 
-0.00831925 
-0.00430389 
0.012291 
0.0042058 
0.00363288 
0.00495396 
0.0185638 
0.0106661 
-0.00501656 
0.000365086 
-0.00327486 
-0.0039301 
-0.00102106 
-0.000463089 
-0.00363705 
-0.00381985 
-0.002818 
-0.00107965 
-0.0033491 
-0.00165796 
0.00542893 
0.000747183 
0.00224949 
0.00371651 
0.00364503 
0.00432668 
0.00347287 
0.00600169 
0.00976963 
0.00775623 
0.000776525 
0.00308874 
0.00330063 
-0.000740469 
-0.00181432 
0.00152801 
-0.00109021 
-0.00266873 
-0.00108707 
0.000466715 
0.00522468 
0.00242979 
0.00143905 
0.0112901 
-0.00157707 
0.00125212 
0.00740146 
0.00572495 
-0.00537833 
0.00517804 
0.0101323 
0.00212923 
-0.00409539 
-0.0051 
-0.00186565 
-0.00166344 
-7.23304e-05 
-0.00281817 
-0.00291211 
0.000221142 
0.000888445 
0.000449267 
-0.00333403 
-0.00407973 
0.00145491 
0.000273356 
-0.000548229 
0.00284814 
0.00313448 
0.00449212 
0.00733321 
0.0095666 
0.0078908 
0.00624387 
0.00805744 
0.0146839 
0.00757306 
0.0133122 
0.0186119 
0.0231939 
0.00453764 
0.00970529 
0.0185218 
0.0120673 
0.00394248 
0.00469024 
0.00450432 
0.000598209 
0.00194639 
-0.000993905 
0.0171019 
0.00469536 
-0.0015101 
-0.00064188 
0.0089398 
0.00945351 
9.70268e-06 
-0.00185748 
0.00186481 
0.000424099 
0.00161924 
0.00223767 
0.000845803 
0.0016082 
0.00158284 
0.00178904 
0.00390059 
0.00308774 
0.0043338 
0.00865884 
0.0131992 
0.0168512 
0.00154062 
0.00180113 
0.00165655 
0.00103882 
0.00223236 
0.0017421 
0.00816577 
0.003544 
0.00235054 
0.00167523 
0.0132576 
0.0059561 
0.0111661 
0.0186562 
0.00529555 
0.0125474 
0.0155756 
0.0057848 
0.0156808 
0.00851377 
0.00441743 
0.00492005 
0.0109395 
0.0169592 
0.0130688 
0.0130899 
0.016807 
0.00289475 
0.00451829 
0.0109345 
0.00456649 
-0.00203985 
0.000763864 
-0.000791232 
-0.00279099 
-0.00445744 
0.00469638 
0.000560262 
-0.00286138 
-0.00388628 
-0.00498899 
-0.00141985 
0.00029298 
-0.00393825 
-0.00014731 
-0.00362464 
-0.00316908 
-0.00213091 
0.0102943 
0.00385702 
0.000432039 
3.46465e-05 
-0.00403988 
-0.0054827 
-0.00511558 
0.00196479 
0.00400007 
0.00242087 
0.00736569 
0.0114739 
0.0033277 
0.0109862 
0.0138175 
0.00759196 
-0.000602919 
0.00349311 
-0.00168411 
-0.00389757 
-0.00162496 
-0.00247013 
-0.00198235 
0.00629856 
-0.000452361 
0.000318715 
0.00788198 
0.0123835 
0.0051467 
0.011421 
-0.00340529 
0.00112557 
0.00288093 
-0.00106901 
0.00801684 
-0.000484904 
-0.000913181 
-0.00039007 
0.00966029 
0.008873 
0.00147657 
-0.000807018 
0.00027432 
-0.00348296 
0.00331551 
0.00685825 
0.00230075 
0.00421378 
0.00336194 
0.00136701 
0.00160544 
0.00291938 
0.00367358 
0.01167 
0.000607923 
0.00970619 
0.000300885 
-0.00271054 
0.000268493 
-0.00205147 
-0.00164523 
0.0012192 
0.0118138 
0.00185204 
0.00126309 
0.00320987 
0.0162881 
0.0104187 
-0.00161213 
0.00982605 
-0.00416968 
-0.00282364 
-0.00210388 
-0.00311925 
-0.00256043 
-0.00431181 
-0.00367698 
0.00394663 
-0.000929684 
0.00489505 
0.0116922 
0.00567521 
0.0164393 
0.0135681 
0.000437504 
0.00804827 
0.0106261 
0.00383307 
-0.00340008 
-0.00435305 
-0.00233841 
-0.00226818 
-0.00208508 
-0.00479406 
-0.00601422 
-0.00603767 
0.00187374 
-0.00208164 
-0.00136585 
-0.000539931 
0.0065106 
0.00357168 
0.00103092 
0.00146514 
0.00432585 
0.0044369 
0.00215308 
0.00152337 
-0.000499985 
-0.000605295 
-0.000308035 
0.000161707 
0.000362897 
-0.000249371 
0.000301669 
0.00053357 
0.000949187 
0.000661086 
0.00033791 
-0.000384503 
-0.000575972 
0.00128088 
0.0012801 
0.00048466 
-0.00120562 
-0.00131459 
-0.000902066 
-0.00158082 
0.000293324 
0.000411202 
-2.07229e-05 
0.00384251 
0.00407103 
0.00959669 
-0.000752397 
-2.35796e-05 
-0.000482308 
0.000940625 
-0.00145114 
-0.00102748 
0.00190548 
0.00557836 
0.0036747 
0.000453374 
0.00427749 
0.00276301 
0.00511809 
0.0010239 
0.00299228 
0.0196848 
0.0091012 
0.0099807 
0.0192451 
0.0154112 
0.0046795 
0.0134346 
0.0132696 
0.00380231 
0.00137714 
-0.00125562 
0.0133234 
-0.0012674 
0.00758786 
0.00661672 
-0.00284275 
-0.00398735 
0.00113267 
0.000205718 
-0.00247661 
0.00246576 
-0.00228196 
0.000791003 
0.00445178 
-0.0038858 
0.00961148 
0.00637183 
0.00266583 
0.00936043 
0.00295837 
0.0118347 
0.0155198 
0.00753397 
-0.00377137 
2.53102e-05 
0.00214226 
2.34707e-05 
-0.00380382 
-0.00177191 
0.000761915 
-0.00419493 
-0.00442886 
-0.00138179 
0.00384709 
0.0022052 
0.000451317 
0.0016803 
0.000612822 
0.000626493 
0.00055165 
0.000423378 
ITEM: TIMESTEP
3300000
ITEM: NUMBER OF ATOMS
416
ITEM: BOX BOUNDS pp pp ff
-1.5750970182000000e+01 1.6036605587000000e+01
-1.6275814454999999e+01 1.7531115324000002e+01
-3.3383603858000001e+01 3.3383603858000001e+01
ITEM: ATOMS q 
-0.000926647 
-0.000474114 
0.000845796 
-0.0019212 
0.00361263 
0.000663816 
-0.0013486 
-0.000565586 
0.00284385 
0.00274685 
0.000255705 
-7.51821e-05 
-0.000643256 
0.000509298 
0.000953775 
0.000632963 
-0.00047876 
-0.000333419 
0.000290651 
0.00345139 
7.49656e-05 
0.000208579 
0.00356359 
0.00604605 
0.00136987 
0.00132592 
1.03606e-05 
-0.000658384 
-0.000897031 
-0.000375371 
-0.001319 
-0.00273887 
-0.000471255 
-0.00189555 
-0.00328407 
-0.000839257 
0.00241424 
0.00232866 
-0.00211402 
-0.00100709 
0.000242041 
-0.0052557 
-0.00113585 
-0.00232857 
-0.00580717 
-0.00280258 
0.00547212 
0.00584786 
0.00915807 
0.0137937 
0.00697599 
0.0108062 
0.00605529 
0.00432937 
0.0125357 
0.0143229 
0.011014 
0.00596742 
0.0117744 
0.0146056 
0.00795106 
0.000820632 
0.00582723 
0.00292371 
0.00214476 
0.00221231 
-0.0015379 
-0.000222981 
-0.00291381 
-0.00549929 
-0.00485705 
-0.00491909 
-0.00621301 
-0.000301775 
-0.000531257 
0.00536704 
-0.00522239 
-0.00235276 
-0.00389412 
-0.00711397 
-0.00504454 
-0.00590409 
0.0138142 
0.00594734 
0.00217324 
0.0080145 
0.00451204 
0.0164553 
0.0137425 
0.00447956 
-9.87214e-05 
0.00841337 
-0.00544482 
-0.00170318 
0.00241878 
0.000528258 
0.000668548 
-0.00294075 
-0.000309219 
0.00363992 
0.00223153 
0.00219331 
0.00320091 
0.00361707 
-3.21017e-05 
0.00460743 
0.00561292 
0.000601604 
0.00661885 
0.00156427 
0.00136862 
0.00726535 
0.0145411 
0.0157065 
0.0150037 
0.0165213 
0.00382053 
0.00876546 
0.0115048 
0.00977286 
0.00414063 
0.000797223 
0.00124528 
-0.00246831 
0.0145175 
0.00752357 
-0.000665966 
-0.00144173 
-0.00717326 
0.00554197 
0.00582679 
-0.00602099 
-0.00452583 
-0.0113868 
-0.0112512 
-0.00419713 
0.0121977 
0.00486127 
0.00309356 
0.00651905 
0.0136804 
0.0103188 
-0.00206901 
0.00551747 
-0.000177843 
0.000777364 
-0.00180982 
-0.00315404 
0.00337281 
0.0105366 
0.00341065 
0.00271951 
0.00759349 
0.00868279 
0.00368727 
0.00452836 
0.00460727 
0.00495951 
-0.00419679 
-0.000341951 
0.00233632 
0.000884272 
0.00844029 
0.00218794 
0.00420995 
0.00524842 
0.0151187 
0.00888036 
0.00299866 
0.00386695 
0.00107788 
0.00143732 
0.00123046 
0.000563741 
-0.000424869 
-0.000347713 
-0.000672211 
-0.000569575 
-0.00153035 
-0.00114885 
0.00844797 
9.79429e-05 
-8.76499e-05 
0.000937479 
-0.00180955 
-0.00355075 
0.00878099 
0.00238571 
0.000166977 
0.00729683 
0.00896305 
0.0181014 
0.0201449 
0.01204 
-0.00211266 
0.00454967 
-0.00101791 
-0.000395057 
0.00685807 
0.0150586 
0.000671007 
-0.000256404 
0.00627826 
0.00412425 
0.00931987 
0.00693542 
0.00561065 
0.00913216 
0.0124535 
0.00849945 
0.0025307 
0.00210073 
-0.00379168 
0.0012844 
-0.000244886 
-0.00210654 
-0.00342411 
-0.00370581 
-0.00233689 
0.00720005 
-0.000314224 
-0.000165992 
0.00327504 
0.00427882 
-0.00173311 
-0.00316325 
-0.00234045 
-0.00354894 
0.0168625 
0.0040931 
2.88669e-05 
0.0114737 
0.000510607 
-0.00346456 
0.00371077 
0.00474234 
0.0144195 
0.00679279 
0.00173101 
0.00217194 
0.0189715 
0.0200082 
0.017084 
0.0189624 
0.0189693 
0.020406 
0.00859468 
0.0170537 
0.0187887 
0.0115556 
-0.0029441 
-0.00176333 
-0.00276444 
-0.00474832 
0.00384444 
-0.00134224 
-0.0029587 
-0.00165372 
0.00103461 
-0.00138391 
0.0070703 
0.00668923 
0.000920326 
0.00402726 
0.00352675 
0.000466668 
0.000214752 
0.000238817 
0.000298993 
0.000460806 
0.00251086 
0.00255308 
0.00230641 
0.00101237 
0.000476095 
0.000745654 
0.00141423 
0.00223125 
1.21202e-05 
0.000170106 
0.000952565 
0.000470625 
-0.000668678 
-0.00080998 
0.00777659 
0.00486852 
0.0199738 
0.0147977 
0.01155 
0.0135478 
0.00195134 
0.0105427 
0.00976959 
0.000345444 
0.00288004 
-0.00428498 
-0.00421006 
-0.00216087 
0.00161109 
-0.00154022 
0.00524329 
0.000993806 
-0.00189072 
-0.00187535 
-0.00199657 
-0.000528861 
-0.00366478 
-0.00442139 
-0.00211743 
-0.00573396 
-0.0050534 
0.0040544 
0.00666955 
0.0104986 
0.00384855 
-0.00195939 
-0.00257222 
9.81576e-05 
-0.00322749 
-0.00166566 
0.00319129 
-0.00623572 
-0.00343123 
0.0073765 
-0.00467382 
-0.00630178 
-0.00508197 
-0.00238576 
0.00804582 
0.00313073 
0.00588557 
0.00965296 
0.0208094 
0.0177659 
0.0133558 
0.00831329 
0.00507757 
0.000601249 
-0.00300195 
-0.000471693 
-0.00315132 
-0.00436388 
-0.00754472 
-0.00287891 
0.00640084 
0.00591938 
0.0101499 
0.0162258 
0.0144203 
0.0193703 
0.00500256 
0.0144195 
0.00917204 
0.00320712 
6.93906e-05 
0.001039 
0.00228834 
0.000123109 
0.00688377 
0.00232886 
0.00063603 
0.000400949 
0.00392037 
0.000932461 
0.00978533 
0.0149524 
0.00428532 
0.0139251 
0.0153055 
0.0032047 
-0.000307098 
0.00109785 
3.96202e-05 
-0.0011956 
0.00190839 
0.00209883 
0.00405932 
0.00226819 
0.00106308 
0.000206937 
0.00186978 
0.00407742 
-0.00184538 
-0.00157179 
0.000794978 
0.00214313 
-0.00338971 
-0.004611 
0.001911 
0.00860519 
0.00121447 
0.00623262 
0.0131172 
0.0108164 
-0.00165292 
0.00173945 
0.0061534 
0.00336002 
0.00982064 
0.00464203 
0.00417616 
0.000320665 
0.00385891 
-0.00496538 
0.00920621 
0.00658137 
-0.000779554 
0.000699524 
0.000663907 
0.00365343 
0.0027546 
0.0041118 
-0.00669105 
-0.00481452 
0.00123066 
0.0010454 
ITEM: TIMESTEP
3350000
ITEM: NUMBER OF ATOMS
416
ITEM: BOX BOUNDS pp pp ff
-1.5750970182000000e+01 1.6036605587000000e+01
-1.6275814454999999e+01 1.7531115324000002e+01
-3.3383603858000001e+01 3.3383603858000001e+01
ITEM: ATOMS q 
-0.00123443 
0.00313254 
0.00181996 
-5.17875e-05 
-0.00305435 
-0.00232329 
-0.000983832 
-0.00183399 
-0.00252168 
-0.00283939 
-0.00229616 
-0.00300539 
-0.000265813 
0.000152992 
0.00146217 
0.00140485 
-0.00199889 
-0.000965045 
-0.00125623 
-0.00303652 
-0.00281412 
-0.00310439 
-0.00370013 
-0.00358238 
-0.00135986 
-0.00207811 
-0.00264894 
-0.0020604 
-0.00161813 
-0.0018953 
-0.00207551 
-0.0017019 
-0.000830974 
-0.00169384 
-0.00174428 
-0.000732323 
0.000120762 
0.000396769 
-0.00201185 
-0.00167025 
-0.00211487 
0.000657234 
-0.000654838 
-0.00127392 
0.00191393 
0.00888863 
0.0014259 
0.00145476 
0.00673006 
0.0101453 
0.0103731 
0.0155428 
0.00165952 
0.00398424 
0.00620625 
0.00487814 
0.00698881 
0.00920441 
0.0100381 
0.010435 
0.00973124 
0.00321135 
0.00739822 
0.00141965 
0.0112375 
0.0226381 
0.0089201 
0.0160358 
0.0221552 
0.0105435 
-0.00223946 
0.00357568 
0.0017271 
-0.00594704 
-0.00766379 
-0.0104754 
0.00103785 
-0.00458566 
-0.00582555 
-0.00442895 
-0.00466571 
-0.00517581 
-0.00213782 
-0.00554326 
-0.00505774 
-0.00513656 
0.00487988 
0.00189057 
-0.00226211 
-0.000926018 
-0.00701321 
-0.0036322 
-0.00183481 
-0.0012373 
0.00722471 
0.0161773 
-0.00484503 
0.000115122 
0.00896953 
0.00300775 
-0.00187697 
-0.00297199 
-0.000650931 
0.00189933 
0.00204087 
0.00226603 
-0.00083567 
0.00241698 
-0.00427112 
-0.00181453 
0.00184863 
0.00245199 
-0.00334855 
-0.00457847 
-0.00239978 
0.000214602 
0.0065299 
0.000574708 
0.00354703 
0.01315 
0.0092494 
0.014 
0.018485 
0.019927 
-0.00190637 
0.00224538 
0.00556871 
-0.000852284 
0.00622594 
0.00325646 
0.00683822 
0.0197214 
0.018742 
0.0159644 
0.023686 
0.0164477 
0.0101407 
0.0168596 
0.00943114 
-0.0019115 
0.00962168 
0.00317861 
0.00993224 
-0.00226021 
-0.00405976 
-0.0050483 
0.008569 
0.00617747 
-0.00458544 
-0.0027483 
-0.00254835 
-0.000236497 
0.00059746 
0.00568162 
-0.00122172 
0.00325372 
0.0178746 
0.0065956 
0.0116786 
0.0213019 
0.0147444 
0.00686074 
-0.00705845 
0.000954031 
0.0026941 
-6.87065e-05 
-0.00294707 
0.00140036 
0.00192173 
0.0064208 
0.00286691 
0.00292281 
0.00367236 
0.00328454 
0.00131217 
0.00130497 
0.000921679 
0.000552895 
0.000419336 
3.04239e-05 
0.00476829 
0.00365569 
0.0111992 
0.0125681 
0.00694919 
-0.000559748 
0.00172773 
0.00331042 
-0.00136146 
-0.00339548 
0.00215724 
-0.0010088 
-0.00258963 
-0.003188 
3.01198e-05 
3.63856e-05 
-0.00355686 
-0.00153781 
-0.0005533 
0.0031759 
-0.00250685 
-0.00233206 
0.0037164 
0.0132712 
-0.00371143 
-0.0016496 
0.00669604 
0.00680995 
0.00897651 
0.00200739 
-0.000369102 
-0.0012693 
0.0150952 
0.00869497 
-0.000717201 
-0.000754726 
-0.00068117 
0.00253496 
-0.0015174 
-0.00224656 
0.00824562 
0.00717673 
0.0101864 
0.0153848 
0.000506173 
0.0121443 
0.0163658 
0.00337525 
-0.00319038 
-0.0023334 
-0.00149641 
-0.00413528 
-0.00491914 
-0.00336276 
-0.00115998 
0.00473841 
-0.00250917 
-0.00446988 
0.00358735 
0.0037092 
0.0124096 
0.00737092 
0.00471588 
0.00416347 
0.0171305 
0.0144128 
0.00610413 
-0.00044107 
-0.00284938 
0.000508778 
0.00580016 
0.0101293 
0.00984059 
0.00542749 
-0.00202994 
0.000272884 
0.00142449 
-0.0030253 
-0.000995152 
-0.00198697 
0.0155358 
0.0148202 
0.00646267 
0.0175698 
0.0185441 
0.00576116 
-7.15751e-05 
0.00266779 
0.00231815 
-0.00103874 
-0.000531935 
-0.000458811 
0.00248773 
-0.000477844 
0.000634399 
-0.000100679 
-0.000965074 
0.00319431 
-0.000728978 
-0.000601559 
0.00168754 
0.00204227 
-0.00103 
-0.000981142 
0.000118361 
-0.000530118 
0.00629236 
0.00230763 
0.00151863 
0.00328276 
0.0179228 
0.0119906 
0.00998155 
0.0118351 
0.00847677 
0.0134028 
0.0106112 
0.00343135 
-0.00176781 
-0.001892 
-0.00110348 
-0.00396505 
-0.00418774 
-0.00380694 
0.00413326 
-0.000906034 
-0.00331779 
-0.00213989 
0.00154841 
0.000901059 
-0.00142097 
0.00243077 
0.00657992 
0.00516246 
-0.00206166 
-0.00501875 
-0.00323667 
-0.00225426 
-0.00722025 
-0.0050277 
-0.00369198 
-0.00589402 
-0.00175054 
0.00827764 
-0.00681443 
-0.00748066 
-0.00570305 
-0.00578431 
-0.00388724 
-0.00853958 
-0.00877829 
-0.0067721 
0.0105449 
0.000766157 
-0.0048403 
-0.000890334 
-0.00121205 
-0.00211142 
0.00585781 
0.0130248 
-0.00426101 
-0.00183472 
0.00491375 
0.0028764 
-0.00356755 
-0.00555576 
-0.00388883 
0.000232972 
0.00643031 
0.0126581 
0.0136419 
0.00898302 
0.00222817 
0.000480616 
0.00439555 
0.00724568 
0.00149274 
-0.000487531 
0.0015464 
0.000336579 
-0.000247595 
-0.00078719 
0.00243606 
0.000190268 
0.00764777 
0.0186511 
0.0141093 
0.016261 
0.0177607 
0.00782762 
0.00333328 
0.0126742 
0.00739993 
-0.00085488 
-0.000563718 
-0.00214995 
0.00656802 
0.00149393 
0.000113984 
0.00178176 
0.00132612 
0.00255033 
-0.00118557 
-0.00146982 
0.00201683 
0.00545049 
-0.00206312 
0.00192225 
-0.00106009 
-0.00408648 
0.00209258 
0.00369786 
0.00475249 
0.0113039 
-0.00103359 
0.00413909 
0.0111453 
0.00633088 
0.00394066 
0.000486655 
0.000480631 
-0.0032357 
-0.00365773 
-0.000550271 
0.00919769 
-0.000183218 
-0.00294193 
-0.00272967 
0.0106736 
0.0150694 
0.00438295 
0.00229258 
-0.00544765 
-6.09106e-05 
0.00184844 
0.000827937 
ITEM: TIMESTEP
3400000
ITEM: NUMBER OF ATOMS
416
ITEM: BOX BOUNDS pp pp ff
-1.5750970182000000e+01 1.6036605587000000e+01
-1.6275814454999999e+01 1.7531115324000002e+01
-3.3383603858000001e+01 3.3383603858000001e+01
ITEM: ATOMS q 
0.0144718 
0.0163927 
0.0137126 
0.0159828 
0.00281085 
0.00739707 
0.00910493 
0.000465404 
0.00328022 
0.00071211 
-0.00368145 
-0.00926303 
0.0069117 
4.29452e-05 
-0.00466263 
-0.00422761 
0.00713085 
0.00628865 
0.00244806 
0.00857299 
-0.00751516 
0.00964961 
0.015035 
0.00701989 
-0.00290716 
-0.000195648 
-0.00635639 
-0.00464107 
-0.00286117 
-0.00376944 
0.00221873 
0.0103366 
0.00804213 
0.00722304 
0.0144308 
0.016791 
0.0143031 
0.0180035 
-0.00704464 
-0.00699474 
-6.93592e-06 
-0.00205939 
0.00698056 
-0.00152267 
-0.00195724 
-0.00014202 
0.0070503 
0.00478016 
0.000358104 
-0.000318356 
0.00261858 
-0.00047187 
0.00202824 
0.00735621 
-0.00253477 
-0.000859735 
0.00210933 
-0.000707759 
0.0118075 
0.00456855 
0.001116 
0.00178998 
0.0106054 
0.00375144 
0.00345233 
-0.000660269 
0.000689414 
0.000440546 
-0.00055938 
-0.00035021 
0.000346214 
0.000424988 
0.000210465 
0.000225718 
0.00017385 
0.00044768 
0.0137652 
-0.000289094 
0.00570915 
0.00963939 
0.000280191 
-0.00187481 
0.000163652 
0.000149349 
-0.000785297 
-0.00245861 
0.0109247 
0.00296294 
0.00031128 
0.00466286 
-0.00151813 
0.00345936 
-0.00100577 
-0.000477752 
0.00430202 
0.0114758 
0.000190411 
0.00432439 
0.0162994 
0.015911 
0.000222932 
-0.000645456 
0.00290221 
-0.0033828 
-0.00408296 
-0.00398202 
-0.00161558 
-0.00174632 
0.000629816 
-0.00412728 
-0.0047235 
-0.000822603 
0.00387038 
0.00190826 
0.000735015 
0.00303066 
0.00714365 
0.0144143 
0.0101571 
0.00103342 
0.000865551 
0.00280952 
0.00024206 
-0.00222686 
0.00630401 
0.00582398 
0.00591701 
0.00952171 
3.26212e-05 
0.00111376 
0.00170811 
0.00165434 
0.000197331 
0.000396424 
0.00113035 
0.00137461 
-0.00059311 
0.00022499 
0.000603966 
0.000121355 
-0.00100697 
-0.000497042 
0.00287463 
0.00618075 
0.00843914 
0.00323727 
0.000952489 
0.00141222 
0.000194855 
0.00130569 
0.00207954 
0.00191441 
0.00463817 
0.0117195 
0.00310632 
0.00899754 
-0.000824793 
-0.000333375 
-0.00134405 
-0.00118608 
-0.000842614 
0.00038455 
-8.73795e-05 
-0.000539287 
0.00115388 
0.00441267 
0.00151334 
0.0034808 
0.000375015 
0.00639829 
-0.000307581 
-0.00115224 
-0.00118808 
-0.00494591 
0.00995562 
0.0040007 
-0.00175069 
0.00599972 
0.0136998 
0.01414 
0.00475818 
0.00309851 
0.00881495 
0.00513704 
0.000913631 
-0.00305226 
0.00560648 
0.00170659 
-0.00700276 
-0.0073517 
-0.00294933 
-0.00349755 
-0.00556851 
0.00101704 
0.00646428 
0.0119276 
-0.00339676 
0.00180246 
0.00353303 
-0.00261226 
-0.00623152 
-0.00548771 
-0.00445397 
0.00304959 
0.00926792 
0.00252485 
0.0117118 
0.0161697 
-0.00189886 
-0.000984977 
-0.00332446 
-0.000721407 
-0.00426284 
-0.0037594 
-0.00211634 
-0.00250696 
0.00422388 
-0.00264593 
-0.00638855 
0.00128917 
0.00420318 
0.00361269 
0.00627315 
0.0135041 
0.00533185 
0.00966072 
0.0148681 
0.0140024 
0.0032126 
0.00446317 
0.00722049 
0.00321479 
0.00643997 
0.00802322 
0.0129215 
0.0204416 
0.00202433 
0.00529335 
0.0126485 
0.0041329 
0.00979442 
0.00380433 
-0.000395341 
-0.00139636 
0.0111236 
0.00533929 
0.0149583 
0.00757939 
0.00385817 
0.00713348 
0.00973586 
0.0187019 
0.0150925 
0.00780315 
-0.00379186 
0.000281786 
0.0019235 
-0.00136827 
-0.00338262 
-0.00372048 
0.0115981 
0.00460576 
-0.00654102 
0.00486555 
0.00361261 
-0.0047161 
0.0015665 
-0.0112513 
-0.00903879 
-0.00319532 
0.0089743 
0.00294072 
-0.00254916 
-0.00322533 
-0.0019294 
-0.00310793 
-0.0026538 
0.00512119 
0.00158872 
0.0036679 
0.0118133 
0.0149731 
0.00562315 
0.012616 
0.0136505 
0.00407423 
0.000156982 
0.00726654 
0.00490995 
0.00213385 
0.00406938 
-0.000360599 
0.00139092 
0.00106987 
0.00928775 
0.0058286 
3.98654e-05 
-0.000420165 
0.00340613 
0.0136125 
0.00233449 
0.00410104 
0.00623958 
0.00385579 
0.00116897 
0.0018768 
0.00156289 
0.000663383 
0.00139724 
0.00186508 
0.00158237 
0.00366411 
0.0149131 
0.00488347 
-0.000327927 
-0.000105246 
0.0148582 
0.0166546 
0.00615335 
0.00364863 
0.00475479 
0.00743453 
0.00566646 
0.00776144 
-0.00368021 
-0.00323844 
0.0056216 
0.007221 
0.000504825 
-0.00217949 
0.000349284 
0.00319199 
0.0120987 
0.00524245 
0.00610678 
0.00784928 
0.00430928 
0.00399656 
0.00695037 
0.00561556 
0.00364505 
0.0038583 
0.00143003 
-0.000836426 
0.00416589 
0.00382704 
0.00119892 
0.00126888 
0.00663136 
0.00566096 
0.00828843 
0.0145873 
0.00887984 
0.000925502 
-0.00251598 
0.00109513 
-0.00167853 
-0.00403371 
-0.00483698 
-0.00569401 
-0.00428413 
-0.00309403 
-0.00444546 
-0.00452806 
0.00110027 
-0.000671987 
0.000535568 
-0.00301247 
-0.0050474 
-0.0066203 
0.0110322 
0.00168473 
-0.00370774 
-0.00318256 
0.0113637 
0.00124429 
-0.00371483 
-0.00391241 
-0.00642125 
-0.00720047 
-0.0072479 
-0.00468601 
-0.00420252 
-0.00404212 
-1.42029e-05 
0.00955817 
-0.00246775 
0.00751696 
0.0149007 
0.000630897 
0.0039651 
0.00698614 
0.0034859 
0.00143105 
0.000623133 
0.00106512 
0.000957106 
-0.000950942 
0.00257741 
0.000238819 
-0.00133909 
-0.00377956 
-0.000872551 
0.0132461 
0.00175329 
0.00340771 
0.0109813 
0.00736116 
-0.000978553 
0.00191428 
0.00244792 
0.0011823 
-0.00339361 
-0.00108859 
0.00184795 
0.00800716 
ITEM: TIMESTEP
3450000
ITEM: NUMBER OF ATOMS
416
ITEM: BOX BOUNDS pp pp ff
-1.5750970182000000e+01 1.6036605587000000e+01
-1.6275814454999999e+01 1.7531115324000002e+01
-3.3383603858000001e+01 3.3383603858000001e+01
ITEM: ATOMS q 
-0.00748325 
-0.00633595 
-0.00381197 
-0.00379314 
-0.00398606 
-0.00673223 
-0.0054759 
-0.000369712 
-0.00151427 
-0.00281883 
-0.000980589 
0.00194602 
0.00582756 
0.00606981 
0.00998461 
0.0161527 
0.00935589 
0.0127997 
0.0171149 
0.00978718 
0.00309732 
0.0104283 
0.00857874 
-0.00279513 
0.012895 
0.00422499 
0.00569678 
0.00768858 
0.0116396 
0.0171678 
0.007717 
0.000591089 
-0.00369907 
-0.000655485 
-0.00280782 
-0.00522088 
-0.00399305 
-0.00424161 
0.000683462 
-0.00183107 
-0.00664163 
-0.00648446 
-0.00082303 
-0.00050503 
-0.00271383 
0.00192459 
-0.00107252 
0.00162803 
0.00949863 
0.023313 
0.0101999 
0.0216432 
-0.000590718 
-0.00209214 
0.010133 
0.00269545 
-0.00161824 
-0.00176825 
0.00336614 
0.00689561 
-0.00210978 
-0.0029381 
0.0013809 
0.00463204 
0.0104566 
0.0173711 
0.00340816 
0.0161584 
0.0159151 
0.00593441 
-0.00406659 
-0.000256986 
0.00161877 
-0.00238942 
0.00269738 
-0.000811291 
-0.000420705 
0.016258 
-0.00494408 
-0.000777069 
0.0105618 
0.0115371 
-0.0027069 
-0.00252246 
0.00498343 
0.0048206 
-0.00385993 
-0.00228146 
0.000368856 
0.000366915 
0.0152573 
-0.000934615 
0.0115109 
0.0102048 
0.000256525 
-0.00491928 
0.000334579 
0.00102028 
-0.00626499 
-0.00540792 
0.000357536 
-0.00391945 
-0.00385816 
0.00244887 
0.00446505 
0.00479956 
0.00644124 
5.53199e-05 
-0.000514163 
-0.0025244 
-0.00486339 
-0.00537938 
-0.000817869 
-0.00121288 
-0.00334774 
-0.000949944 
0.000976434 
0.00134184 
0.00183253 
0.00733795 
-0.00444573 
-0.00207107 
0.00228721 
0.000928835 
-0.00357546 
-0.00480594 
-0.00299471 
-0.00136965 
-0.00575328 
-0.00216077 
0.000487272 
-0.00140833 
-0.000269367 
-0.00430603 
-0.00301013 
-0.00253984 
0.015431 
0.00240808 
-0.00164186 
-0.000652429 
0.00919285 
0.00071016 
-0.00133229 
-0.00210598 
-0.00197756 
-0.00118849 
-0.00175365 
-0.00191517 
-0.00129334 
-0.00100642 
-0.00146242 
-0.00121404 
-0.00128774 
-0.000788389 
-0.0017112 
-0.000882988 
0.00929007 
-0.00122379 
0.0014875 
0.00138623 
-0.00168133 
-0.00222278 
-0.00155797 
-0.00140014 
-0.00209733 
-0.00202574 
-0.00174477 
-0.0016115 
-0.00195971 
-0.000358298 
-0.00221353 
-0.00213958 
-0.00147779 
-0.00143039 
-0.00163544 
-0.00146802 
-0.000833436 
0.00288197 
-0.000188675 
0.00443773 
-0.00220839 
-0.000644598 
-0.00352084 
-0.00110195 
0.000801064 
0.00610376 
0.00131511 
0.000864608 
0.00798453 
0.0146651 
0.00558387 
0.00800582 
0.0187973 
0.0190482 
0.000241973 
0.00920035 
0.00594383 
0.0017555 
0.00389652 
0.000150892 
0.0100174 
0.00445093 
-0.00189496 
-0.00273339 
0.0102635 
0.00510949 
-0.00262652 
-9.19129e-05 
0.0112645 
0.00784871 
0.00917771 
0.00946864 
0.00341883 
0.00864072 
0.00669282 
0.000462899 
0.000281987 
0.000889825 
3.23184e-05 
-3.34255e-05 
0.00177651 
0.000182731 
-0.0024804 
-0.00458577 
-0.00206154 
-0.00311239 
-0.00521736 
-0.00387653 
-0.00346848 
-0.0041849 
-0.00451049 
-0.00624569 
0.000925859 
0.00214418 
0.00350111 
0.00350948 
-0.000776239 
0.000905696 
0.00157395 
-0.00182339 
-0.000569338 
-0.00135199 
-0.00168477 